6
Properties=species:S:1:pos:R:3:energies:R:1:forces:R:3 energy=1.2236913177119333 free_energy=1.2236913177119333 pbc="F F F"
C        1.27903182       0.57402093       0.00000000       0.22004333       0.00008372       0.00041550       0.00000000
C        1.27903182      -0.57402093      -0.00000000       0.22004333       0.00008372      -0.00041550      -0.00000000
C       -0.00000000      -0.71294193       0.00000000       0.17175901       0.00000000       0.00005239       0.00000000
C       -1.27903182      -0.57402093      -0.00000000       0.22004333      -0.00008372      -0.00041550      -0.00000000
C       -1.27903182       0.57402093       0.00000000       0.22004333      -0.00008372       0.00041550       0.00000000
C       -0.00000000       0.71294193      -0.00000000       0.17175901       0.00000000      -0.00005239      -0.00000000
