
  ___ ___ ___ _ _ _  
 |   |   |_  | | | | 
 | | | | | . | | | | 
 |__ |  _|___|_____|  25.7.0
 |___|_|             

User:   surajit@SurajitMac.local
Date:   Mon May  4 11:38:31 2026
Arch:   arm64
Pid:    33739
CWD:    /Users/surajit/ase_tutorials/_notebooks_
Python: 3.9.6
gpaw:   /Users/surajit/Library/Python/3.9/lib/python/site-packages/gpaw
_gpaw:  /Users/surajit/Library/Python/3.9/lib/python/site-packages/
        _gpaw.cpython-39-darwin.so
ase:    /Users/surajit/Library/Python/3.9/lib/python/site-packages/ase (version 3.26.0)
numpy:  /Users/surajit/Library/Python/3.9/lib/python/site-packages/numpy (version 2.0.2)
scipy:  /Users/surajit/Library/Python/3.9/lib/python/site-packages/scipy (version 1.13.1)
libxc:  2.x.y
units:  Angstrom and eV
cores: 1
OpenMP: False
OMP_NUM_THREADS: 1

Input parameters:
  convergence: {energy: 1e-05}
  kpts: [1 1 1]
  mode: {ecut: 600.0,
         name: pw}
  occupations: {name: fermi-dirac,
                width: 0.1}
  xc: PBE

System changes: positions, numbers, cell, pbc, initial_charges, initial_magmoms 

Initialize ...

species:
  Au:
    name: Gold
    id: b12133f335f6ca0d89c4b1ccaa844e9a
    Z: 79.0
    valence: 11
    core: 68
    charge: 0.0
    file: /Users/surajit/Library/Python/3.9/lib/python/site-packages/gpaw_data/setups/Au.PBE.gz
    compensation charges: {type: gauss,
                           rc: 0.42,
                           lmax: 2}
    cutoffs: {filter: 2.33,
              core: 2.81}
    projectors:
      #              energy  rcut
      - 6s(1.00)    -5.728   1.323
      - 6p(0.00)    -0.775   1.323
      - 5d(10.00)    -6.891   1.323
      -  s          21.484   1.323
      -  p          26.436   1.323
      -  d          20.321   1.323
  
    # Using partial waves for Au as LCAO basis

Reference energy: -1033196.542219  # eV

Spin-paired calculation

Convergence criteria:
 Maximum [total energy] change in last 3 cyles: 1e-05 eV / valence electron
 Maximum integral of absolute [dens]ity change: 0.0001 electrons / valence electron
 Maximum integral of absolute [eigenst]ate change: 4e-08 eV^2 / valence electron
 Maximum number of scf [iter]ations: 333
 (Square brackets indicate name in SCF output, whereas a 'c' in
 the SCF output indicates the quantity has converged.)

Symmetries present (total): 48

  ( 1  0  0)  ( 1  0  0)  ( 1  0  0)  ( 1  0  0)  ( 1  0  0)  ( 1  0  0)
  ( 0  1  0)  ( 0  1  0)  ( 0  0  1)  ( 0  0  1)  ( 0  0 -1)  ( 0  0 -1)
  ( 0  0  1)  ( 0  0 -1)  ( 0  1  0)  ( 0 -1  0)  ( 0  1  0)  ( 0 -1  0)

  ( 1  0  0)  ( 1  0  0)  ( 0  1  0)  ( 0  1  0)  ( 0  1  0)  ( 0  1  0)
  ( 0 -1  0)  ( 0 -1  0)  ( 1  0  0)  ( 1  0  0)  ( 0  0  1)  ( 0  0  1)
  ( 0  0  1)  ( 0  0 -1)  ( 0  0  1)  ( 0  0 -1)  ( 1  0  0)  (-1  0  0)

  ( 0  1  0)  ( 0  1  0)  ( 0  1  0)  ( 0  1  0)  ( 0  0  1)  ( 0  0  1)
  ( 0  0 -1)  ( 0  0 -1)  (-1  0  0)  (-1  0  0)  ( 1  0  0)  ( 1  0  0)
  ( 1  0  0)  (-1  0  0)  ( 0  0  1)  ( 0  0 -1)  ( 0  1  0)  ( 0 -1  0)

  ( 0  0  1)  ( 0  0  1)  ( 0  0  1)  ( 0  0  1)  ( 0  0  1)  ( 0  0  1)
  ( 0  1  0)  ( 0  1  0)  ( 0 -1  0)  ( 0 -1  0)  (-1  0  0)  (-1  0  0)
  ( 1  0  0)  (-1  0  0)  ( 1  0  0)  (-1  0  0)  ( 0  1  0)  ( 0 -1  0)

  ( 0  0 -1)  ( 0  0 -1)  ( 0  0 -1)  ( 0  0 -1)  ( 0  0 -1)  ( 0  0 -1)
  ( 1  0  0)  ( 1  0  0)  ( 0  1  0)  ( 0  1  0)  ( 0 -1  0)  ( 0 -1  0)
  ( 0  1  0)  ( 0 -1  0)  ( 1  0  0)  (-1  0  0)  ( 1  0  0)  (-1  0  0)

  ( 0  0 -1)  ( 0  0 -1)  ( 0 -1  0)  ( 0 -1  0)  ( 0 -1  0)  ( 0 -1  0)
  (-1  0  0)  (-1  0  0)  ( 1  0  0)  ( 1  0  0)  ( 0  0  1)  ( 0  0  1)
  ( 0  1  0)  ( 0 -1  0)  ( 0  0  1)  ( 0  0 -1)  ( 1  0  0)  (-1  0  0)

  ( 0 -1  0)  ( 0 -1  0)  ( 0 -1  0)  ( 0 -1  0)  (-1  0  0)  (-1  0  0)
  ( 0  0 -1)  ( 0  0 -1)  (-1  0  0)  (-1  0  0)  ( 0  1  0)  ( 0  1  0)
  ( 1  0  0)  (-1  0  0)  ( 0  0  1)  ( 0  0 -1)  ( 0  0  1)  ( 0  0 -1)

  (-1  0  0)  (-1  0  0)  (-1  0  0)  (-1  0  0)  (-1  0  0)  (-1  0  0)
  ( 0  0  1)  ( 0  0  1)  ( 0  0 -1)  ( 0  0 -1)  ( 0 -1  0)  ( 0 -1  0)
  ( 0  1  0)  ( 0 -1  0)  ( 0  1  0)  ( 0 -1  0)  ( 0  0  1)  ( 0  0 -1)

1 k-point (Gamma)
1 k-point in the irreducible part of the Brillouin zone
       k-points in crystal coordinates                weights
   0:     0.00000000    0.00000000    0.00000000          1/1

Wave functions: Plane wave expansion
  Cutoff energy: 600.000 eV
  Number of coefficients: 33371 (reduced to 16686)
  Pulay-stress correction: 0.000000 eV/Ang^3 (de/decut=0.000000)
  Using Numpy's FFT
  ScaLapack parameters: grid=1x1, blocksize=None
  Wavefunction extrapolation:
    Improved wavefunction reuse through dual PAW basis 

Occupation numbers: Fermi-Dirac:
  width: 0.1000  # eV
 

Eigensolver
   Davidson(niter=2) 

Densities:
  Coarse grid: 60*60*60 grid
  Fine grid: 120*120*120 grid
  Total Charge: 0.000000 

Density mixing:
  Method: separate
  Backend: pulay
  Linear mixing parameter: 0.05
  old densities: 5
  Damping of long wavelength oscillations: 50 

Hamiltonian:
  XC and Coulomb potentials evaluated on a 120*120*120 grid
  Using the PBE Exchange-Correlation functional
  External potential:
    NoExternalPotential
 

XC parameters: PBE with 2 nearest neighbor stencil

Memory estimate:
  Process memory now: 3080.19 MiB
  Calculator: 140.19 MiB
    Density: 94.62 MiB
      Arrays: 42.85 MiB
      Localized functions: 35.29 MiB
      Mixer: 16.48 MiB
    Hamiltonian: 28.73 MiB
      Arrays: 28.02 MiB
      XC: 0.00 MiB
      Poisson: 0.00 MiB
      vbar: 0.72 MiB
    Wavefunctions: 16.84 MiB
      Arrays psit_nG: 4.58 MiB
      Eigensolver: 5.88 MiB
      Projections: 0.00 MiB
      Projectors: 1.91 MiB
      PW-descriptor: 4.46 MiB

Total number of cores used: 1

Number of atoms: 2
Number of atomic orbitals: 18
Number of bands in calculation: 18
Number of valence electrons: 22
Bands to converge: occupied

... initialized

Initializing position-dependent things.

Density initialized from atomic densities
Creating initial wave functions:
  18 bands from LCAO basis set

       .------------------------.  
      /|                        |  
     / |                        |  
    /  |                        |  
   /   |                        |  
  /    |                        |  
 *     |                        |  
 |     |                        |  
 |     |                        |  
 |     |         Au             |  
 |     |                        |  
 |     |                        |  
 |     .------------------------.  
 |    /                        /   
 |   /                        /    
 |  /                        /     
 | /                        /      
 |/                        /       
 Au-----------------------*        

Atomic positions and initial magnetic moments

Positions:
   0 Au     0.000000    0.000000    0.000000    ( 0.0000,  0.0000,  0.0000)
   1 Au     5.000000    5.000000    5.000000    ( 0.0000,  0.0000,  0.0000)

Unit cell:
           periodic     x           y           z      points  spacing
  1. axis:    yes   10.000000    0.000000    0.000000    60     0.1667
  2. axis:    yes    0.000000   10.000000    0.000000    60     0.1667
  3. axis:    yes    0.000000    0.000000   10.000000    60     0.1667

  Lengths:  10.000000  10.000000  10.000000
  Angles:   90.000000  90.000000  90.000000

Effective grid spacing dv^(1/3) = 0.1667

     iter     time        total  log10-change:
                         energy   eigst   dens
iter:   1 11:38:32    -0.122415
iter:   2 11:38:33    -0.124255   -2.95  -2.68
iter:   3 11:38:33    -0.124942   -3.76  -2.67
iter:   4 11:38:34    -0.126851   -3.23  -2.69
iter:   5 11:38:35    -0.127153   -4.09  -3.00
iter:   6 11:38:35    -0.128943   -3.57  -2.96
iter:   7 11:38:36    -0.126628   -3.08  -2.64
iter:   8 11:38:36    -0.126641   -5.09  -3.86
iter:   9 11:38:37    -0.126634c  -5.40  -3.69
iter:  10 11:38:38    -0.126634c  -6.03  -4.04c
iter:  11 11:38:38    -0.126637c  -5.79  -4.43c
iter:  12 11:38:39    -0.126635c  -6.64  -3.94
iter:  13 11:38:40    -0.126635c  -6.23  -4.10c
iter:  14 11:38:40    -0.126634c  -7.36  -4.40c
iter:  15 11:38:41    -0.126634c  -8.34c -4.36c

Converged after 15 iterations.

Dipole moment: (0.000000, 0.000000, 0.000000) |e|*Ang

Energy contributions relative to reference atoms: (reference = -1033196.542219)

Kinetic:         +1.222632
Potential:       -1.135774
External:        +0.000000
XC:              -0.050473
Entropy (-ST):   -0.277104
Local:           -0.024467
SIC:             +0.000000
--------------------------
Free energy:     -0.265187
Extrapolated:    -0.126634

 Band  Eigenvalues  Occupancy
    0     -6.39929    1.99998
    1     -6.39929    1.99998
    2     -6.39929    1.99998
    3     -6.39921    1.99998
    4     -6.39921    1.99998
    5     -6.39898    1.99998
    6     -6.39898    1.99998
    7     -6.39885    1.99998
    8     -6.39885    1.99998
    9     -6.39885    1.99998
   10     -5.24767    1.04397
   11     -5.23011    0.95621
   12     -0.36884    0.00000
   13     -0.36884    0.00000
   14     -0.36884    0.00000
   15     -0.04033    0.00000
   16     -0.04033    0.00000
   17     -0.04033    0.00000

Fermi level: -5.23887

Gap: 0.018 eV
Transition (v -> c):
  (s=0, k=0, n=10, [0.00, 0.00, 0.00]) -> (s=0, k=0, n=11, [0.00, 0.00, 0.00])
No difference between direct/indirect transitions
