3
Lattice="13.197400642489887 0.0 0.0 0.0 12.92695950921976 0.0 0.0 0.0 12.0" Properties=species:S:1:pos:R:3:magmoms:R:1:forces:R:3 energy=-13.027383588400223 free_energy=-13.027383588400223 dipole="0.22641237813424103 0.29235782219047723 2.7655492061099082e-14" magmom=0.0 pbc="F F F"
H        7.21266979       6.00122028       6.00000000       0.00000000      -0.02265944       0.02183616       0.00000000
H        5.99686529       6.94290860       6.00000000       0.00000000       0.01373243      -0.02166458       0.00000000
O        6.22722608       5.98468617       6.00000000       0.00000000      -0.00389778       0.02049231       0.00000000
